<?xml version="1.0" encoding="UTF-8"?>
<UPF version="2.0.1">
  <PP_INFO><![CDATA[
Generated using "atomic" code by A. Dal Corso  v.6.3MaX
Author: TM
Generation date: 25Jul2019
Pseudopotential type: NC
Element: Si
Functional: LDA
    Suggested minimum cutoff for wavefunctions:   0. Ry
    Suggested minimum cutoff for charge density:   0. Ry
    The Pseudo was generated with a Scalar-Relativistic Calculation
    L component and cutoff radius for Local Potential:  2   1.8000
    Pseudopotential contains additional information for GIPAW reconstruction.
    Valence configuration:
    nl pn  l   occ       Rcut    Rcut US       E pseu
    3S  1  0  2.00      1.800      1.800    -0.799994
    3P  2  1  2.00      1.800      1.800    -0.306392
    Generation configuration:
    3S  1  0  2.00      1.800      1.800    -0.799990
    3P  2  1  2.00      1.800      1.800    -0.306394
    3D  3  2  0.00      1.800      1.800     0.100000
    Pseudization used: troullier-martins
]]>
    <PP_INPUTFILE><![CDATA[
 &input
   title='Si',
   zed=14.0,
   rel=1,
   config='[Ne] 3s2 3p2 3d-2.0 ',
   iswitch=3,
   dft='LDA'
 /
 &inputp
   pseudotype=2,
   file_pseudopw='Si.pz-n-nc.UPF',
   author='TM',
   lloc=2,
   nlcc=.true.,
   tm=.true.
 /
3
3S  1  0  2.00  0.00  1.80  1.80  0.0
3P  2  1  2.00  0.00  1.80  1.80  0.0
3D  3  2  0.00  0.10  1.80  1.80  0.0
]]></PP_INPUTFILE>
  </PP_INFO>
  <!--
 END OF HUMAN READABLE SECTION 
-->
  <PP_HEADER generated="Generated using &quot;atomic&quot; code by A. Dal Corso  v.6.3MaX" author="TM" date="25Jul2019" comment="" element="Si" pseudo_type="NC" relativistic="scalar" is_ultrasoft="false" is_paw="false" is_coulomb="false" has_so="false" has_wfc="false" has_gipaw="true" paw_as_gipaw="false" core_correction="true" functional="LDA" z_valence="4.000000000000e0" total_psenergy="-9.256846947592e0" wfc_cutoff="0.000000000000e0" rho_cutoff="0.000000000000e0" l_max="2" l_max_rho="4" l_local="2" mesh_size="1141" number_of_wfc="2" number_of_proj="2"/>
  <PP_MESH dx="1.250000000000e-2" mesh="1141" xmin="-7.000000000000e0" rmax="1.000000000000e2" zmesh="1.400000000000e1">
    <PP_R>
      6.513442611103688e-5 6.595371633350158e-5 6.678331195832730e-5 6.762334261151813e-5
      6.847393954957285e-5 6.933523567999349e-5 7.020736558205277e-5 7.109046552782223e-5
      7.198467350346503e-5 7.289012923079676e-5 7.380697418911693e-5 7.473535163731562e-5
      7.567540663625786e-5 7.662728607144977e-5 7.759113867598986e-5 7.856711505380845e-5
      7.955536770320024e-5 8.055605104065231e-5 8.156932142497196e-5 8.259533718171841e-5
      8.363425862794104e-5 8.468624809722948e-5 8.575146996507863e-5 8.683009067457247e-5
      8.792227876239147e-5 8.902820488514639e-5 9.014804184604388e-5 9.128196462188747e-5
      9.243015039041770e-5 9.359277855799714e-5 9.477003078764225e-5 9.596209102740904e-5
      9.716914553913526e-5 9.839138292754408e-5 9.962899416971421e-5 1.008821726449201e-4
      1.021511141648482e-4 1.034360170041925e-4 1.047370819316359e-4 1.060545122412205e-4
      1.073885137841123e-4 1.087392950007666e-4 1.101070669534965e-4 1.114920433594523e-4
      1.128944406240155e-4 1.143144778746117e-4 1.157523769949505e-4 1.172083626596947e-4
      1.186826623695667e-4 1.201755064868958e-4 1.216871282716124e-4 1.232177639176959e-4
      1.247676525900800e-4 1.263370364620229e-4 1.279261607529478e-4 1.295352737667582e-4
      1.311646269306362e-4 1.328144748343286e-4 1.344850752699269e-4 1.361766892721483e-4
      1.378895811591221e-4 1.396240185736905e-4 1.413802725252283e-4 1.431586174319885e-4
      1.449593311639810e-4 1.467826950863899e-4 1.486289941035378e-4 1.504985167034024e-4
      1.523915550026934e-4 1.543084047924968e-4 1.562493655844918e-4 1.582147406577512e-4
      1.602048371061288e-4 1.622199658862433e-4 1.642604418660668e-4 1.663265838741224e-4
      1.684187147493023e-4 1.705371613913124e-4 1.726822548117503e-4 1.748543301858273e-4
      1.770537269047399e-4 1.792807886286999e-4 1.815358633406327e-4 1.838193034005500e-4
      1.861314656006070e-4 1.884727112208516e-4 1.908434060856750e-4 1.932439206209734e-4
      1.956746299120263e-4 1.981359137621063e-4 2.006281567518224e-4 2.031517482992120e-4
      2.057070827205888e-4 2.082945592921548e-4 2.109145823123890e-4 2.135675611652186e-4
      2.162539103839868e-4 2.189740497162245e-4 2.217284041892363e-4 2.245174041765129e-4
      2.273414854649762e-4 2.302010893230733e-4 2.330966625697248e-4 2.360286576441415e-4
      2.389975326765194e-4 2.420037515596222e-4 2.450477840212668e-4 2.481301056977181e-4
      2.512511982080091e-4 2.544115492291950e-4 2.576116525725522e-4 2.608520082607388e-4
      2.641331226059238e-4 2.674555082888986e-4 2.708196844391862e-4 2.742261767161545e-4
      2.776755173911522e-4 2.811682454306774e-4 2.847049065805921e-4 2.882860534513970e-4
      2.919122456045762e-4 2.955840496400312e-4 2.993020392846128e-4 3.030667954817671e-4
      3.068789064823100e-4 3.107389679363406e-4 3.146475829863147e-4 3.186053623612858e-4
      3.226129244723333e-4 3.266708955091909e-4 3.307799095380890e-4 3.349406086008293e-4
      3.391536428151055e-4 3.434196704760850e-4 3.477393581592688e-4 3.521133808246466e-4
      3.565424219221584e-4 3.610271734984867e-4 3.655683363051897e-4 3.701666199081946e-4
      3.748227427986703e-4 3.795374325052912e-4 3.843114257079158e-4 3.891454683526949e-4
      3.940403157686265e-4 3.989967327855785e-4 4.040154938537935e-4 4.090973831648990e-4
      4.142431947744391e-4 4.194537327259466e-4 4.247298111765781e-4 4.300722545243256e-4
      4.354818975368313e-4 4.409595854818219e-4 4.465061742591829e-4 4.521225305346962e-4
      4.578095318754559e-4 4.635680668869919e-4 4.693990353521156e-4 4.753033483715123e-4
      4.812819285061048e-4 4.873357099212019e-4 4.934656385324667e-4 4.996726721537155e-4
      5.059577806465799e-4 5.123219460720501e-4 5.187661628439208e-4 5.252914378841740e-4
      5.318987907803104e-4 5.385892539446621e-4 5.453638727757115e-4 5.522237058214336e-4
      5.591698249446981e-4 5.662033154907502e-4 5.733252764567967e-4 5.805368206637293e-4
      5.878390749300022e-4 5.952331802477007e-4 6.027202919608240e-4 6.103015799458100e-4
      6.179782287943310e-4 6.257514379983877e-4 6.336224221377328e-4 6.415924110696518e-4
      6.496626501211297e-4 6.578344002834386e-4 6.661089384091662e-4 6.744875574117295e-4
      6.829715664673938e-4 6.915622912198345e-4 7.002610739872734e-4 7.090692739722152e-4
      7.179882674738276e-4 7.270194481029913e-4 7.361642270000529e-4 7.454240330553217e-4
      7.548003131323325e-4 7.642945322939235e-4 7.739081740311544e-4 7.836427404951054e-4
      7.934997527315933e-4 8.034807509188333e-4 8.135872946080983e-4 8.238209629674023e-4
      8.341833550282459e-4 8.446760899354727e-4 8.553008072002587e-4 8.660591669562928e-4
      8.769528502191747e-4 8.879835591490773e-4 8.991530173167142e-4 9.104629699726477e-4
      9.219151843199908e-4 9.335114497905350e-4 9.452535783243521e-4 9.571434046529163e-4
      9.691827865857809e-4 9.813736053008673e-4 9.937177656384023e-4 1.006217196398552e-3
      1.018873850642804e-3 1.031689705999134e-3 1.044666764971016e-3 1.057807055250315e-3
      1.071112630034121e-3 1.084585568345568e-3 1.098227975358674e-3 1.112041982727292e-3
      1.126029748918178e-3 1.140193459548258e-3 1.154535327726134e-3 1.169057594397888e-3
      1.183762528697232e-3 1.198652428300069e-3 1.213729619783505e-3 1.228996458989384e-3
      1.244455331392394e-3 1.260108652472797e-3 1.275958868093861e-3 1.292008454884022e-3
      1.308259920623870e-3 1.324715804637992e-3 1.341378678191743e-3 1.358251144893019e-3
      1.375335841099067e-3 1.392635436328428e-3 1.410152633678056e-3 1.427890170245674e-3
      1.445850817557456e-3 1.464037382001090e-3 1.482452705264268e-3 1.501099664778717e-3
      1.519981174169798e-3 1.539100183711769e-3 1.558459680788769e-3 1.578062690361603e-3
      1.597912275440400e-3 1.618011537563212e-3 1.638363617280638e-3 1.658971694646541e-3
      1.679838989714936e-3 1.700968763043134e-3 1.722364316201205e-3 1.744028992287860e-3
      1.765966176452814e-3 1.788179296425725e-3 1.810671823051782e-3 1.833447270834031e-3
      1.856509198482525e-3 1.879861209470380e-3 1.903506952596820e-3 1.927450122557320e-3
      1.951694460520898e-3 1.976243754714684e-3 2.001101841015845e-3 2.026272603550936e-3
      2.051759975302816e-3 2.077567938725177e-3 2.103700526364806e-3 2.130161821491694e-3
      2.156955958737036e-3 2.184087124739293e-3 2.211559558798349e-3 2.239377553537921e-3
      2.267545455576282e-3 2.296067666205434e-3 2.324948642078817e-3 2.354192895907669e-3
      2.383804997166148e-3 2.413789572805325e-3 2.444151307976145e-3 2.474894946761502e-3
      2.506025292917502e-3 2.537547210624069e-3 2.569465625244977e-3 2.601785524097445e-3
      2.634511957231429e-3 2.667650038218687e-3 2.701204944951792e-3 2.735181920453190e-3
      2.769586273694429e-3 2.804423380425701e-3 2.839698684015808e-3 2.875417696302704e-3
      2.911585998454731e-3 2.948209241842682e-3 2.985293148922851e-3 3.022843514131166e-3
      3.060866204788585e-3 3.099367162017884e-3 3.138352401671959e-3 3.177828015273823e-3
      3.217800170968416e-3 3.258275114486386e-3 3.299259170120008e-3 3.340758741711356e-3
      3.382780313652924e-3 3.425330451900820e-3 3.468415805000713e-3 3.512043105126684e-3
      3.556219169133139e-3 3.600950899619956e-3 3.646245286011029e-3 3.692109405646385e-3
      3.738550424888029e-3 3.785575600239702e-3 3.833192279480724e-3 3.881407902814107e-3
      3.930230004029088e-3 3.979666211678317e-3 4.029724250269812e-3 4.080411941473949e-3
      4.131737205345606e-3 4.183708061561680e-3 4.236332630674196e-3 4.289619135379141e-3
      4.343575901801283e-3 4.398211360795160e-3 4.453534049262387e-3 4.509552611485600e-3
      4.566275800479114e-3 4.623712479356612e-3 4.681871622716026e-3 4.740762318041829e-3
      4.800393767124984e-3 4.860775287500730e-3 4.921916313904470e-3 4.983826399745976e-3
      5.046515218602114e-3 5.109992565728375e-3 5.174268359589393e-3 5.239352643408725e-3
      5.305255586738136e-3 5.371987487046600e-3 5.439558771329311e-3 5.507979997736911e-3
      5.577261857225226e-3 5.647415175225763e-3 5.718450913337182e-3 5.790380171038091e-3
      5.863214187421345e-3 5.936964342950183e-3 6.011642161236458e-3 6.087259310841203e-3
      6.163827607097896e-3 6.241359013958601e-3 6.319865645863379e-3 6.399359769633194e-3
      6.479853806386608e-3 6.561360333480638e-3 6.643892086475967e-3 6.727461961126906e-3
      6.812083015396404e-3 6.897768471496345e-3 6.984531717953578e-3 7.072386311701882e-3
      7.161345980200267e-3 7.251424623577934e-3 7.342636316806171e-3 7.434995311897620e-3
      7.528516040133171e-3 7.623213114316872e-3 7.719101331059236e-3 7.816195673089209e-3
      7.914511311595279e-3 8.014063608595984e-3 8.114868119340269e-3 8.216940594738031e-3
      8.320296983821212e-3 8.424953436235894e-3 8.530926304765691e-3 8.638232147886907e-3
      8.746887732355852e-3 8.856910035828658e-3 8.968316249514091e-3 9.081123780859690e-3
      9.195350256271730e-3 9.311013523869407e-3 9.428131656273585e-3 9.546722953430747e-3
      9.666805945472339e-3 9.788399395610176e-3 9.911522303068235e-3 1.003619390605130e-2
      1.016243368475097e-2 1.029026136438952e-2 1.041969691830196e-2 1.055076057105692e-2
      1.068347280161679e-2 1.081785434653761e-2 1.095392620320918e-2 1.109170963313593e-2
      1.123122616525912e-2 1.137249759932073e-2 1.151554600926977e-2 1.166039374671132e-2
      1.180706344439904e-2 1.195557801977161e-2 1.210596067853358e-2 1.225823491828134e-2
      1.241242453217466e-2 1.256855361265440e-2 1.272664655520704e-2 1.288672806217649e-2
      1.304882314662390e-2 1.321295713623602e-2 1.337915567728265e-2 1.354744473862395e-2
      1.371785061576815e-2 1.389039993498026e-2 1.406511965744244e-2 1.424203708346680e-2
      1.442117985676110e-2 1.460257596874815e-2 1.478625376293948e-2 1.497224193936413e-2
      1.516056955905308e-2 1.535126604858005e-2 1.554436120465950e-2 1.573988519880242e-2
      1.593786858203071e-2 1.613834228965078e-2 1.634133764608732e-2 1.654688636977778e-2
      1.675502057812841e-2 1.696577279253273e-2 1.717917594345302e-2 1.739526337556577e-2
      1.761406885297190e-2 1.783562656447240e-2 1.805997112891047e-2 1.828713760058073e-2
      1.851716147470654e-2 1.875007869298624e-2 1.898592564920905e-2 1.922473919494171e-2
      1.946655664528662e-2 1.971141578471237e-2 1.995935487295767e-2 2.021041265100950e-2
      2.046462834715644e-2 2.072204168311825e-2 2.098269288025235e-2 2.124662266583862e-2
      2.151387227944301e-2 2.178448347936138e-2 2.205849854914428e-2 2.233596030420385e-2
      2.261691209850381e-2 2.290139783133363e-2 2.318946195416784e-2 2.348114947761173e-2
      2.377650597843426e-2 2.407557760668960e-2 2.437841109292813e-2 2.468505375549818e-2
      2.499555350793968e-2 2.530995886647063e-2 2.562831895756798e-2 2.595068352564367e-2
      2.627710294081731e-2 2.660762820678665e-2 2.694231096879693e-2 2.728120352171064e-2
      2.762435881817867e-2 2.797183047691422e-2 2.832367279107093e-2 2.867994073672620e-2
      2.904068998147137e-2 2.940597689310990e-2 2.977585854846490e-2 3.015039274229754e-2
      3.052963799633763e-2 3.091365356842767e-2 3.130249946178210e-2 3.169623643436286e-2
      3.209492600837299e-2 3.249863047986955e-2 3.290741292849757e-2 3.332133722734632e-2
      3.374046805292963e-2 3.416487089529173e-2 3.459461206824019e-2 3.502975871970759e-2
      3.547037884224355e-2 3.591654128363865e-2 3.636831575768210e-2 3.682577285505459e-2
      3.728898405435830e-2 3.775802173328553e-2 3.823295917992788e-2 3.871387060422766e-2
      3.920083114957333e-2 3.969391690454083e-2 4.019320491478257e-2 4.069877319506594e-2
      4.121070074146335e-2 4.172906754369543e-2 4.225395459762965e-2 4.278544391793612e-2
      4.332361855090240e-2 4.386856258740986e-2 4.442036117607289e-2 4.497910053654358e-2
      4.554486797298383e-2 4.611775188770659e-2 4.669784179498910e-2 4.728522833505959e-2
      4.788000328825997e-2 4.848225958938675e-2 4.909209134221232e-2 4.970959383418872e-2
      5.033486355133670e-2 5.096799819332163e-2 5.160909668871946e-2 5.225825921047443e-2
      5.291558719155130e-2 5.358118334078443e-2 5.425515165892635e-2 5.493759745489792e-2
      5.562862736224323e-2 5.632834935579121e-2 5.703687276852696e-2 5.775430830867520e-2
      5.848076807699872e-2 5.921636558431434e-2 5.996121576922913e-2 6.071543501609989e-2
      6.147914117321845e-2 6.225245357122558e-2 6.303549304175684e-2 6.382838193632257e-2
      6.463124414542571e-2 6.544420511791986e-2 6.626739188061094e-2 6.710093305810544e-2
      6.794495889290816e-2 6.879960126577301e-2 6.966499371630951e-2 7.054127146384870e-2
      7.142857142857146e-2 7.232703225290249e-2 7.323679432317353e-2 7.415799979155898e-2
      7.509079259828746e-2 7.603531849413283e-2 7.699172506318799e-2 7.796016174592515e-2
      7.894077986254631e-2 7.993373263662720e-2 8.093917521905905e-2 8.195726471229092e-2
      8.298816019487740e-2 8.403202274633506e-2 8.508901547231131e-2 8.615930353007007e-2
      8.724305415429788e-2 8.834043668323465e-2 8.945162258513319e-2 9.057678548505143e-2
      9.171610119198158e-2 9.286974772632083e-2 9.403790534768730e-2 9.522075658308594e-2
      9.641848625542883e-2 9.763128151241407e-2 9.885933185576800e-2 1.001028291708553e-1
      1.013619677566613e-1 1.026369443561518e-1 1.039279581870144e-1 1.052352109727869e-1
      1.065589069743765e-1 1.078992530219766e-1 1.092564585473842e-1 1.106307356167239e-1
      1.120222989635835e-1 1.134313660225674e-1 1.148581569632703e-1 1.163028947246793e-1
      1.177658050500092e-1 1.192471165219745e-1 1.207470605985066e-1 1.222658716489189e-1
      1.238037869905283e-1 1.253610469257357e-1 1.269378947795742e-1 1.285345769377293e-1
      1.301513428850364e-1 1.317884452444643e-1 1.334461398165874e-1 1.351246856195550e-1
      1.368243449295641e-1 1.385453833218396e-1 1.402880697121320e-1 1.420526763987352e-1
      1.438394791050341e-1 1.456487570225869e-1 1.474807928547491e-1 1.493358728608469e-1
      1.512142869009054e-1 1.531163284809400e-1 1.550422947988174e-1 1.569924867906931e-1
      1.589672091780335e-1 1.609667705152293e-1 1.629914832378075e-1 1.650416637112504e-1
      1.671176322804280e-1 1.692197133196529e-1 1.713482352833642e-1 1.735035307574492e-1
      1.756859365112108e-1 1.778957935499880e-1 1.801334471684392e-1 1.823992470044949e-1
      1.846935470939891e-1 1.870167059259787e-1 1.893690864987577e-1 1.917510563765765e-1
      1.941629877470747e-1 1.966052574794361e-1 1.990782471832751e-1 2.015823432682644e-1
      2.041179370045118e-1 2.066854245836973e-1 2.092852071809788e-1 2.119176910176763e-1
      2.145832874247454e-1 2.172824129070475e-1 2.200154892084309e-1 2.227829433776281e-1
      2.255852078349835e-1 2.284227204400198e-1 2.312959245598544e-1 2.342052691384768e-1
      2.371512087668964e-1 2.401342037541736e-1 2.431547201993443e-1 2.462132300642483e-1
      2.493102112472745e-1 2.524461476580337e-1 2.556215292929700e-1 2.588368523119246e-1
      2.620926191156605e-1 2.653893384243647e-1 2.687275253571366e-1 2.721077015124759e-1
      2.755303950497840e-1 2.789961407718895e-1 2.825054802086128e-1 2.860589617013805e-1
      2.896571404889055e-1 2.933005787939439e-1 2.969898459111436e-1 3.007255182959973e-1
      3.045081796549157e-1 3.083384210364319e-1 3.122168409235543e-1 3.161440453272811e-1
      3.201206478812905e-1 3.241472699378218e-1 3.282245406647637e-1 3.323530971439624e-1
      3.365335844707674e-1 3.407666558548290e-1 3.450529727221629e-1 3.493932048185005e-1
      3.537880303139370e-1 3.582381359088973e-1 3.627442169414345e-1 3.673069774958777e-1
      3.719271305128466e-1 3.766053979006496e-1 3.813425106480842e-1 3.861392089386549e-1
      3.909962422662287e-1 3.959143695521447e-1 4.008943592637971e-1 4.059369895347104e-1
      4.110430482861238e-1 4.162133333501054e-1 4.214486525942157e-1 4.267498240477376e-1
      4.321176760294963e-1 4.375530472772850e-1 4.430567870789192e-1 4.486297554049405e-1
      4.542728230429883e-1 4.599868717338616e-1 4.657727943092939e-1 4.716314948314593e-1
      4.775638887342338e-1 4.835709029662342e-1 4.896534761356558e-1 4.958125586569313e-1
      5.020491128992354e-1 5.083641133368570e-1 5.147585467014623e-1 5.212334121362740e-1
      5.277897213521895e-1 5.344284987858630e-1 5.411507817597750e-1 5.479576206443167e-1
      5.548500790219127e-1 5.618292338532068e-1 5.688961756453413e-1 5.760520086223481e-1
      5.832978508976897e-1 5.906348346489624e-1 5.980641062948049e-1 6.055868266740269e-1
      6.132041712269926e-1 6.209173301792863e-1 6.287275087276866e-1 6.366359272284815e-1
      6.446438213881519e-1 6.527524424564520e-1 6.609630574219213e-1 6.692769492098526e-1
      6.776954168827522e-1 6.862197758433220e-1 6.948513580399920e-1 7.035915121750421e-1
      7.124416039153376e-1 7.214030161057183e-1 7.304771489850718e-1 7.396654204051210e-1
      7.489692660519699e-1 7.583901396704293e-1 7.679295132911685e-1 7.775888774607246e-1
      7.873697414744003e-1 7.972736336120981e-1 8.073021013771136e-1 8.174567117379377e-1
      8.277390513730998e-1 8.381507269190866e-1 8.486933652213862e-1 8.593686135886813e-1
      8.701781400502485e-1 8.811236336165901e-1 8.922068045433438e-1 9.034293845985166e-1
      9.147931273330745e-1 9.262998083549386e-1 9.379512256064302e-1 9.497491996451991e-1
      9.616955739286926e-1 9.737922151021975e-1 9.860410132905074e-1 9.984438823932599e-1
      1.011002760383986e0 1.023719609612924e0 1.036596417113637e0 1.049635194913496e0
      1.062837980348060e0 1.076206836379414e0 1.089743851918512e0 1.103451142151573e0
      1.117330848870584e0 1.131385140807959e0 1.145616213975405e0 1.160026292007060e0
      1.174617626506933e0 1.189392497400725e0 1.204353213292074e0 1.219502111823276e0
      1.234841560040546e0 1.250373954763878e0 1.266101722961546e0 1.282027322129332e0
      1.298153240674505e0 1.314481998304647e0 1.331016146421358e0 1.347758268518921e0
      1.364710980587976e0 1.381876931524273e0 1.399258803542571e0 1.416859312595738e0
      1.434681208799120e0 1.452727276860259e0 1.471000336514003e0 1.489503242963101e0
      1.508238887324330e0 1.527210197080240e0 1.546420136536576e0 1.565871707285462e0
      1.585567948674403e0 1.605511938281188e0 1.625706792394767e0 1.646155666502185e0
      1.666861755781623e0 1.687828295601659e0 1.709058562026797e0 1.730555872329356e0
      1.752323585507812e0 1.774365102811632e0 1.796683868272741e0 1.819283369243650e0
      1.842167136942362e0 1.865338747004141e0 1.888801820040200e0 1.912560022203438e0
      1.936617065761279e0 1.960976709675722e0 1.985642760190691e0 2.010619071426761e0
      2.035909545983378e0 2.061518135548645e0 2.087448841516782e0 2.113705715613355e0
      2.140292860528359e0 2.167214430557281e0 2.194474632250210e0 2.222077725069119e0
      2.250028022053425e0 2.278329890493894e0 2.306987752615050e0 2.336006086266155e0
      2.365389425620880e0 2.395142361885782e0 2.425269544017683e0 2.455775679450086e0
      2.486665534828718e0 2.517943936756326e0 2.549615772546850e0 2.581685990989068e0
      2.614159603119858e0 2.647041683007185e0 2.680337368542930e0 2.714051862245699e0
      2.748190432073725e0 2.782758412247999e0 2.817761204085754e0 2.853204276844425e0
      2.889093168576244e0 2.925433486993559e0 2.962230910345055e0 2.999491188303001e0
      3.037220142861629e0 3.075423669246853e0 3.114107736837395e0 3.153278390097518e0
      3.192941749521490e0 3.233104012589913e0 3.273771454738107e0 3.314950430336643e0
      3.356647373684236e0 3.398868800013122e0 3.441621306507060e0 3.484911573332174e0
      3.528746364680730e0 3.573132529828055e0 3.618077004202762e0 3.663586810470409e0
      3.709669059630819e0 3.756330952129177e0 3.803579778981117e0 3.851422922911969e0
      3.899867859510306e0 3.948922158396031e0 3.998593484403154e0 4.048889598777416e0
      4.099818360389017e0 4.151387726960574e0 4.203605756310529e0 4.256480607612214e0
      4.310020542668714e0 4.364233927203812e0 4.419129232169139e0 4.474715035067776e0
      4.531000021294525e0 4.587992985492993e0 4.645702832929786e0 4.704138580885982e0
      4.763309360066087e0 4.823224416024725e0 4.883893110611297e0 4.945324923432760e0
      5.007529453334852e0 5.070516419901923e0 5.134295664975648e0 5.198877154192834e0
      5.264270978542561e0 5.330487355942927e0 5.397536632837620e0 5.465429285812563e0
      5.534175923232922e0 5.603787286900654e0 5.674274253732958e0 5.745647837461808e0
      5.817919190354867e0 5.891099604958073e0 5.965200515860091e0 6.040233501479006e0
      6.116210285871476e0 6.193142740564636e0 6.271042886411061e0 6.349922895467023e0
      6.429795092894421e0 6.510671958886603e0 6.592566130618421e0 6.675490404220833e0
      6.759457736780297e0 6.844481248363354e0 6.930574224066675e0 7.017750116092862e0
      7.106022545852419e0 7.195405306092080e0 7.285912363049984e0 7.377557858637918e0
      7.470356112651016e0 7.564321625005280e0 7.659469078003183e0 7.755813338627836e0
      7.853369460865972e0 7.952152688060168e0 8.052178455290660e0 8.153462391787075e0
      8.256020323370555e0 8.359868274926566e0 8.465022472908810e0 8.571499347874676e0
      8.679315537052497e0 8.788487886941189e0 8.899033455942533e0 9.010969517026584e0
      9.124313560430638e0 9.239083296392069e0 9.355296657915622e0 9.472971803575476e0
      9.592127120352538e0 9.712781226507499e0 9.834952974489909e0 9.958661453883950e0
      1.008392599439121e1 1.021076616885100e1 1.033920179629864e1 1.046925294506223e1
      1.060093993589834e1 1.073428334516721e1 1.086930400804783e1 1.100602302179348e1
      1.114446174902822e1 1.128464182108483e1 1.142658514138476e1 1.157031388886060e1
      1.171585052142156e1 1.186321777946258e1 1.201243868941754e1 1.216353656735722e1
      1.231653502263245e1 1.247145796156317e1 1.262832959117375e1 1.278717442297549e1
      1.294801727679653e1 1.311088328466000e1 1.327579789471101e1 1.344278687519289e1
      1.361187631847358e1 1.378309264512261e1 1.395646260803936e1 1.413201329663326e1
      1.430977214105656e1 1.448976691649036e1 1.467202574748453e1 1.485657711235219e1
      1.504344984761961e1 1.523267315253186e1 1.542427659361531e1 1.561829010929744e1
      1.581474401458480e1 1.601366900579979e1 1.621509616537701e1 1.641905696671993e1
      1.662558327911874e1 1.683470737272990e1 1.704646192361855e1 1.726088001886406e1
      1.747799516173004e1 1.769784127689931e1 1.792045271577461e1 1.814586426184622e1
      1.837411113612678e1 1.860522900265479e1 1.883925397406709e1 1.907622261724158e1
      1.931617195901091e1 1.955913949194790e1 1.980516318022387e1 2.005428146554068e1
      2.030653327313721e1 2.056195801787165e1 2.082059561038001e1 2.108248646331233e1
      2.134767149764718e1 2.161619214908570e1 2.188809037452602e1 2.216340865861903e1
      2.244219002040675e1 2.272447802004415e1 2.301031676560547e1 2.329975091997629e1
      2.359282570783207e1 2.388958692270467e1 2.419008093413769e1 2.449435469493174e1
      2.480245574848106e1 2.511443223620206e1 2.543033290505567e1 2.575020711516412e1
      2.607410484752350e1 2.640207671181349e1 2.673417395430516e1 2.707044846586828e1
      2.741095279007945e1 2.775574013143206e1 2.810486436364972e1 2.845838003810400e1
      2.881634239233825e1 2.917880735869861e1 2.954583157307349e1 2.991747238374314e1
      3.029378786034033e1 3.067483680292388e1 3.106067875116633e1 3.145137399365707e1
      3.184698357732266e1 3.224756931696540e1 3.265319380492210e1 3.306392042084425e1
      3.347981334160122e1 3.390093755130803e1 3.432735885147924e1 3.475914387131054e1
      3.519636007808977e1 3.563907578773872e1 3.608736017548779e1 3.654128328668459e1
      3.700091604773875e1 3.746633027720431e1 3.793759869700152e1 3.841479494377978e1
      3.889799358042353e1 3.938727010770281e1 3.988270097607043e1 4.038436359760751e1
      4.089233635811939e1 4.140669862938331e1 4.192753078155067e1 4.245491419570487e1
      4.298893127657730e1 4.352966546542341e1 4.407720125306026e1 4.463162419306868e1
      4.519302091516101e1 4.576147913871721e1 4.633708768649131e1 4.691993649848999e1
      4.751011664602589e1 4.810772034594782e1 4.871284097504969e1 4.932557308466098e1
      4.994601241542042e1 5.057425591223573e1 5.121040173943142e1 5.185454929608724e1
      5.250679923156953e1 5.316725346125764e1 5.383601518246872e1 5.451318889058227e1
      5.519888039536785e1 5.589319683751827e1 5.659624670539015e1 5.730813985195570e1
      5.802898751196743e1 5.875890231933875e1 5.949799832474343e1 6.024639101343597e1
      6.100419732329660e1 6.177153566310299e1 6.254852593103186e1 6.333528953339346e1
      6.413194940360132e1 6.493863002138093e1 6.575545743222007e1 6.658255926706345e1
      6.742006476225564e1 6.826810477973412e1 6.912681182747697e1 6.999632008020744e1
      7.087676540035902e1 7.176828535930436e1 7.267101925885081e1 7.358510815300678e1
      7.451069487002171e1 7.544792403470322e1 7.639694209101524e1 7.735789732495973e1
      7.833093988774713e1 7.931622181925751e1 8.031389707179718e1 8.132412153415428e1
      8.234705305595632e1 8.338285147233474e1 8.443167862889943e1 8.549369840702740e1
      8.656907674946982e1 8.765798168628049e1 8.876058336107119e1 8.987705405759689e1
      9.100756822667529e1 9.215230251344552e1 9.331143578496878e1 9.448514915817704e1
      9.567362602817280e1 9.687705209688488e1 9.809561540208508e1 9.932950634676892e1
      1.005789177289069e2
      </PP_R>
    <PP_RAB>
      8.141803263879609e-7 8.244214541687697e-7 8.347913994790911e-7 8.452917826439768e-7
      8.559242443696606e-7 8.666904459999186e-7 8.775920697756597e-7 8.886308190977779e-7
      8.998084187933127e-7 9.111266153849595e-7 9.225871773639616e-7 9.341918954664450e-7
      9.459425829532233e-7 9.578410758931220e-7 9.698892334498733e-7 9.820889381726056e-7
      9.944420962900033e-7 1.006950638008154e-6 1.019616517812150e-6 1.032441714771480e-6
      1.045428232849263e-6 1.058578101215369e-6 1.071893374563483e-6 1.085376133432156e-6
      1.099028484529894e-6 1.112852561064330e-6 1.126850523075549e-6 1.141024557773593e-6
      1.155376879880221e-6 1.169909731974964e-6 1.184625384845528e-6 1.199526137842613e-6
      1.214614319239191e-6 1.229892286594301e-6 1.245362427121427e-6 1.261027158061502e-6
      1.276888927060602e-6 1.292950212552407e-6 1.309213524145449e-6 1.325681403015256e-6
      1.342356422301404e-6 1.359241187509582e-6 1.376338336918706e-6 1.393650541993154e-6
      1.411180507800194e-6 1.428930973432647e-6 1.446904712436881e-6 1.465104533246184e-6
      1.483533279619584e-6 1.502193831086197e-6 1.521089103395155e-6 1.540222048971199e-6
      1.559595657376000e-6 1.579212955775287e-6 1.599077009411848e-6 1.619190922084478e-6
      1.639557836632953e-6 1.660180935429109e-6 1.681063440874087e-6 1.702208615901854e-6
      1.723619764489026e-6 1.745300232171131e-6 1.767253406565354e-6 1.789482717899856e-6
      1.811991639549763e-6 1.834783688579874e-6 1.857862426294223e-6 1.881231458792531e-6
      1.904894437533668e-6 1.928855059906210e-6 1.953117069806147e-6 1.977684258221890e-6
      2.002560463826610e-6 2.027749573578042e-6 2.053255523325835e-6 2.079082298426530e-6
      2.105233934366280e-6 2.131714517391405e-6 2.158528185146878e-6 2.185679127322842e-6
      2.213171586309248e-6 2.241009857858749e-6 2.269198291757910e-6 2.297741292506875e-6
      2.326643320007588e-6 2.355908890260645e-6 2.385542576070939e-6 2.415549007762167e-6
      2.445932873900329e-6 2.476698922026329e-6 2.507851959397779e-6 2.539396853740150e-6
      2.571338534007360e-6 2.603681991151935e-6 2.636432278904863e-6 2.669594514565233e-6
      2.703173879799835e-6 2.737175621452806e-6 2.771605052365455e-6 2.806467552206411e-6
      2.841768568312203e-6 2.877513616538416e-6 2.913708282121561e-6 2.950358220551770e-6
      2.987469158456493e-6 3.025046894495278e-6 3.063097300265835e-6 3.101626321221476e-6
      3.140639977600115e-6 3.180144365364937e-6 3.220145657156902e-6 3.260650103259236e-6